% Model:              ZMK_XCEL_MidtermGr_R2_NMC532_v14_multiStep_currentAndT_updatedAging_correlated_25Apr2023.mph
% Version:            COMSOL 5.6.0.280
% Date:               May 24 2023, 13:32
% Table:              Parametric Study, Model Temperature effect demonstration - 
% bat.T_0 (K)            demand.C_rate            Time (s) (s)             Temperature (degC), Point: 1.66E-4Electric potential (V), Point: 1.66E-4Dependent variable Li_rev (umol/cm^2), int_Li_revDependent variable Li_irrev (umol/cm^2), int_Li_irrevDynamic capacity of the cell (mAh), Capacity probeTemperature (1), Point: 1.66E-4
293.15                   6                        0                        20.00014784333257        3.443766522211575        0                        0                        8.623999999999999E-6     1
293.15                   6                        1                        20.120469812627903       3.5257411703078216       0                        0                        0.007195290666666667     1
293.15                   6                        2                        20.237232277691817       3.5601478903279014       0                        0                        0.014381957333333332     1
293.15                   6                        3                        20.35125694936943        3.586645720407838        0                        0                        0.021568623999999998     1
293.15                   6                        4                        20.46280422876231        3.6087665560021844       0                        0                        0.028755290666666655     1
293.15                   6                        5                        20.572092197371262       3.6283224674696233       0                        0                        0.035941957333333316     1
293.15                   6                        6                        20.679214847344156       3.645922288416609        0                        0                        0.04312862399999998      1
293.15                   6                        7                        20.784249281979555       3.661972524045728        0                        0                        0.050315290666666644     1
293.15                   6                        8                        20.88728559451306        3.6768733347563267       0                        0                        0.0575019573333333       1
293.15                   6                        9                        20.988397283157212       3.6908591113972142       0                        0                        0.06468862399999997      1
293.15                   6                        10                       21.08765717205455        3.7041041663089045       0                        0                        0.07187529066666665      1
293.15                   6                        11                       21.185137080306674       3.7167115159786435       0                        0                        0.0790619573333333       1
293.15                   6                        12                       21.28088346454109        3.728755676240621        0                        0                        0.08624862399999997      1
293.15                   6                        13                       21.374891840496332       3.7402264579801283       0                        0                        0.09343529066666661      1
293.15                   6                        14                       21.467237126970417       3.75122402631287         0                        0                        0.1006219573333333       1
293.15                   6                        15                       21.55788321489922        3.7617001040549196       0                        0                        0.10780862399999995      1
293.15                   6                        16                       21.646858541168058       3.7716488139805073       0                        0                        0.11499529066666662      1
293.15                   6                        17                       21.73417744822177        3.7810671918484804       0                        0                        0.12218195733333329      1
293.15                   6                        18                       21.819825140355533       3.7899526963392822       0                        0                        0.12936862399999996      1
293.15                   6                        19                       21.903735866705517       3.7981254039612873       0                        0                        0.1365552906666666       1
293.15                   6                        20                       21.985939059332793       3.805665853872053        0                        0                        0.14374195733333328      1
293.15                   6                        21                       22.066441102805015       3.8126649745825727       0                        0                        0.15092862399999993      1
293.15                   6                        22                       22.145249188225307       3.819225181225223        0                        0                        0.15811529066666663      1
293.15                   6                        23                       22.22235858473067        3.8252790972156094       0                        0                        0.1653019573333333       1
293.15                   6                        24                       22.29793763078311        3.831243337297132        0                        0                        0.17248862399999995      1
293.15                   6                        25                       22.37193576856987        3.836992777776001        0                        0                        0.17967529066666665      1
293.15                   6                        26                       22.444407197457053       3.8425456841127836       0                        0                        0.1868619573333333       1
293.15                   6                        27                       22.515496130414306       3.848004852910611        0                        0                        0.19404862399999998      1
293.15                   6                        28                       22.585122015276397       3.8533128656932942       0                        0                        0.20123529066666662      1
293.15                   6                        29                       22.653438158213874       3.858514426783826        0                        0                        0.20842195733333332      1
293.15                   6                        30                       22.72043705436772        3.863607347753376        0                        0                        0.215608624              1
293.15                   6                        31                       22.786119691407237       3.8685901629240704       0                        0                        0.22279529066666662      1
293.15                   6                        32                       22.850621133403706       3.8734944368352218       0                        0                        0.2299819573333333       1
293.15                   6                        33                       22.913873637771133       3.87830433801143         0                        0                        0.23716862399999997      1
293.15                   6                        34                       22.975963934580193       3.883037767755532        0                        0                        0.24435529066666667      1
293.15                   6                        35                       23.03691774796431        3.8877000355928146       0                        0                        0.2515419573333333       1
293.15                   6                        36                       23.09671310226429        3.8922863327087036       0                        0                        0.25872862399999996      1
293.15                   6                        37                       23.155462193238918       3.896816369943132        0                        0                        0.2659152906666666       1
293.15                   6                        38                       23.213113140420433       3.901281032801876        0                        0                        0.2731019573333333       1
293.15                   6                        39                       23.269715100903          3.9056873722779226       0                        0                        0.280288624              1
293.15                   6                        40                       23.32530754081671        3.910041049312231        0                        0                        0.2874752906666666       1
293.15                   6                        41                       23.37986135298746        3.914337888831301        0                        0                        0.29466195733333334      1
293.15                   6                        42                       23.433465026230294       3.918587790677027        0                        0                        0.30184862399999995      1
293.15                   6                        43                       23.486083625854803       3.9227868464694398       0                        0                        0.3090352906666666       1
293.15                   6                        44                       23.537761942721374       3.9269390915554645       0                        0                        0.31622195733333336      1
293.15                   6                        45                       23.588575619171706       3.931051409125555        0                        0                        0.323408624              1
293.15                   6                        46                       23.638479540655396       3.9351196939122626       0                        0                        0.3305952906666666       1
293.15                   6                        47                       23.6874737071725         3.9391439459155873       0                        0                        0.3377819573333333       1
293.15                   6                        48                       23.73555811872285        3.9431241651355298       0                        0                        0.34496862399999995      1
293.15                   6                        49                       23.782763445526484       3.947058775236659        0                        0                        0.3521552906666667       1
293.15                   6                        50                       23.82916332505954        3.950943991526099        0                        0                        0.35934195733333335      1
293.15                   6                        51                       23.874693811933128       3.9547831005594256       0                        0                        0.366528624              1
293.15                   6                        52                       23.919354906147248       3.958576102336637        0                        0                        0.3737152906666667       1
293.15                   6                        53                       23.963146607701788       3.9623229968577345       0                        0                        0.3809019573333333       1
293.15                   6                        54                       24.00608892466863        3.96602258950259         0                        0                        0.388088624              1
293.15                   6                        55                       24.04829930097668        3.9696678680571478       0                        0                        0.3952752906666667       1
293.15                   6                        56                       24.089689216336296       3.9732641177943395       0                        0                        0.4024619573333334       1
293.15                   6                        57                       24.130258670747594       3.9768113387141657       0                        0                        0.409648624              1
293.15                   6                        58                       24.17000766421046        3.9803095308166263       0                        0                        0.4168352906666667       1
293.15                   6                        59                       24.208939153933102       3.983758406286706        0                        0                        0.4240219573333333       1
293.15                   6                        60                       24.247171030207767       3.9871464912628896       0                        0                        0.431208624              1
293.15                   6                        61                       24.284622489058393       3.9904816501215716       0                        0                        0.43839529066666666      1
293.15                   6                        62                       24.32129353048498        3.993763882862751        0                        0                        0.44558195733333333      1
293.15                   6                        63                       24.35718415448747        3.996993189486427        0                        0                        0.452768624              1
293.15                   6                        64                       24.39229436106592        4.000169569992602        0                        0                        0.4599552906666667       1
293.15                   6                        65                       24.426729156991826       4.003289199094442        0                        0                        0.4671419573333333       1
293.15                   6                        66                       24.460431604771316       4.006354150965286        0                        0                        0.474328624              1
293.15                   6                        67                       24.49339223657921        4.009364770508097        0                        0                        0.48151529066666665      1
293.15                   6                        68                       24.525611052415513       4.012321057722875        0                        0                        0.4887019573333333       1
293.15                   6                        69                       24.557088052280335       4.015223012609621        0                        0                        0.495888624              1
293.15                   6                        70                       24.58792569091264        4.018078165173936        0                        0                        0.5030752906666667       1
293.15                   6                        71                       24.618090765267254       4.020884075127363        0                        0                        0.5102619573333333       1
293.15                   6                        72                       24.647558746443167       4.023638939695691        0                        0                        0.517448624              1
293.15                   6                        73                       24.67632963444038        4.026342758878919        0                        0                        0.5246352906666667       1
293.15                   6                        74                       24.70440342925889        4.028995532677046        0                        0                        0.5318219573333334       1
293.15                   6                        75                       24.731883788520406       4.031612806131689        0                        0                        0.539008624              1
293.15                   6                        76                       24.75876841080941        4.034194234110486        0                        0                        0.5461952906666667       1
293.15                   6                        77                       24.78501115286997        4.036732896728321        0                        0                        0.5533819573333334       1
293.15                   6                        78                       24.810612014702144       4.0392287939851945       0                        0                        0.5605686240000001       1
293.15                   6                        79                       24.835570996305876       4.041681925881105        0                        0                        0.5677552906666667       1
293.15                   6                        80                       24.859916321282242       4.0440997713816405       0                        0                        0.5749419573333334       1
293.15                   6                        81                       24.883667784957538       4.046487289005252        0                        0                        0.582128624              1
293.15                   6                        82                       24.906862185975967       4.048851590712952        0                        0                        0.5893152906666667       1
293.15                   6                        83                       24.92951726792984        4.051196168032773        0                        0                        0.5965019573333334       1
293.15                   6                        84                       24.951625596988663       4.053493386139113        2.3785474492721176E-5    5.9463686231802915E-6    0.6036886240000001       1
293.15                   6                        85                       24.973175631470838       4.055766057338012        1.2830618264090152E-4    3.207654566022537E-5     0.6108752906666668       1
293.15                   6                        86                       24.994186565276266       4.058027328850418        3.166916739653157E-4     7.917291849132893E-5     0.6180619573333335       1
293.15                   6                        87                       25.01467502210761        4.0602795960071          5.898724483473217E-4     1.4746811208683042E-4    0.6252486240000001       1
293.15                   6                        88                       25.03465578111718        4.062524594170384        9.489350283032254E-4     2.3723375707580629E-4    0.632435290666667        1
293.15                   6                        89                       25.05414687919648        4.064763834206802        0.0013953443100812944    3.488360775203236E-4     0.6396219573333338       1
293.15                   6                        90                       25.073165924742057       4.06699818206788         0.001930742467574687     4.8268561689367195E-4    0.6468086240000005       1
293.15                   6                        91                       25.09174690201678        4.069228913850001        0.0025586920544280697    6.396730136070202E-4     0.6539952906666671       1
293.15                   6                        92                       25.109885837754177       4.071455873050294        0.0032787818563301645    8.19695464082549E-4      0.6611819573333338       1
293.15                   6                        93                       25.127576821128628       4.073656380999337        0.004100426099098628     0.0010251065247746673    0.6683686240000004       1
293.15                   6                        94                       25.144796533447618       4.075817059357756        0.005111513430247623     0.0012778783575619164    0.6755552906666671       1
293.15                   6                        95                       25.16155338051692        4.077971188039096        0.006336429253373695     0.001584107313343434     0.6827419573333338       1
293.15                   6                        96                       25.177866490064446       4.080119685465882        0.007778165671765623     0.0019445414179414156    0.6899286240000003       1
293.15                   6                        97                       25.193747078595663       4.08226289813616         0.00943880667990583      0.002359701669976468     0.6971152906666671       1
293.15                   6                        98                       25.20920588524018        4.084401154831911        0.011320463150689917     0.00283011578767249      0.7043019573333338       1
293.15                   6                        99                       25.224257359007822       4.08653496389594         0.013426106487572927     0.003356526621893243     0.7114886240000006       1
293.15                   6                        100                      25.238917769150703       4.0886646737882835       0.015759421208671638     0.003939855302167921     0.7186752906666675       1
293.15                   6                        101                      25.25319527930293        4.090790289103841        0.018322346993800417     0.004580586748450114     0.7258619573333341       1
293.15                   6                        102                      25.26709850941637        4.0929083104193404       0.02112091632041268      0.0052802290801031776    0.7330486240000008       1
293.15                   6                        103                      25.280623961785466       4.095002203798864        0.024184328537453482     0.006046082134363379     0.7402352906666675       1
293.15                   6                        104                      25.293770743410732       4.097083552987567        0.027542204658638998     0.00688555116465976      0.7474219573333344       1
293.15                   6                        105                      25.306550453432976       4.099159170541143        0.03120037863247726      0.007800094658119328     0.754608624000001        1
293.15                   6                        106                      25.318974401404432       4.101228166576838        0.03516114176895302      0.00879028544223827      0.7617952906666677       1
293.15                   6                        107                      25.33104916853108        4.103289407883885        0.03942470526433464      0.009856176316083673     0.7689819573333344       1
293.15                   6                        108                      25.342784566741045       4.105335484880646        0.043995477479430806     0.010998869369857714     0.7761686240000014       1
293.15                   6                        109                      25.354172851622252       4.107356068043527        0.04890962628862544      0.012227406572156365     0.7833552906666681       1
293.15                   6                        110                      25.365220772822568       4.109367699828382        0.05417870321273765      0.013544675803184414     0.7905419573333347       1
293.15                   6                        111                      25.37594013948899        4.111370406074445        0.05980138460153094      0.014950346150382742     0.7977286240000012       1
293.15                   6                        112                      25.386352007223422       4.1133645447431215       0.06577438569722732      0.016443596424306837     0.804915290666668        1
293.15                   6                        113                      25.39645295611075        4.115350057954699        0.07209823966869898      0.01802455991717475      0.8121019573333347       1
293.15                   6                        114                      25.406257067556112       4.117327210838449        0.07877050568812342      0.01969262642203086      0.8192886240000014       1
293.15                   6                        115                      25.415776596874935       4.1192962341414345       0.0857890594565116       0.021447264864127902     0.8264752906666679       1
293.15                   6                        116                      25.425002689114194       4.121256961139721        0.09315543586439745      0.02328885896609936      0.8336619573333346       1
293.15                   6                        117                      25.433972403590417       4.123210712162545        0.10086499576238149      0.02521624894059537      0.8408486240000013       1
293.15                   6                        118                      25.442673197574038       4.12515704034434         0.10891930927105407      0.02722982731776352      0.848035290666668        1
293.15                   6                        119                      25.451101982073794       4.127087367430789        0.11732695308531943      0.029331738271329847     0.8552219573333347       1
293.15                   6                        120                      25.45925605391676        4.128991099769118        0.12612229578442988      0.03153057394610746      0.8624086240000013       1
293.15                   6                        121                      25.4671420383375         4.130890010297281        0.13531879481478418      0.033829698703696044     0.8695952906666679       1
293.15                   6                        122                      25.474771057411488       4.132783337448349        0.14491457256535795      0.03622864314133949      0.8767819573333344       1
293.15                   6                        123                      25.482155515435522       4.134671492978939        0.15490777664087124      0.038726944160217804     0.8839686240000012       1
293.15                   6                        124                      25.48930494101512        4.136554779344939        0.1652968131806519       0.04132420329516299      0.8911552906666679       1
293.15                   6                        125                      25.496219047123418       4.138433153317561        0.1760817059870345       0.04402042649675863      0.8983419573333346       1
293.15                   6                        126                      25.50291924003602        4.1403069717589736       0.18725868731631878      0.0468146718290797       0.9055286240000011       1
293.15                   6                        127                      25.509395928549566       4.142176074775054        0.19882944532746466      0.049707361331866165     0.9127152906666678       1
293.15                   6                        128                      25.515671729529004       4.1440409260124          0.21078972741783306      0.05269743185445826      0.9199019573333346       1
293.15                   6                        129                      25.521751909813815       4.145901633441425        0.22313854327439026      0.05578463581859757      0.9270886240000014       1
293.15                   6                        130                      25.527629563570315       4.1477580554922735       0.23587719138686303      0.05896929784671575      0.9342752906666679       1
293.15                   6                        131                      25.53332453579361        4.1496093884178595       0.2490038068792634       0.062250951719815845     0.9414619573333346       1
293.15                   6                        132                      25.53883176596463        4.1514551144685194       0.2625210367264546       0.06563025918161365      0.9486486240000012       1
293.15                   6                        133                      25.544160988598094       4.153288330954358        0.27644752121977695      0.06911188030494422      0.9558352906666678       1
293.15                   6                        134                      25.54931276937799        4.15511419281733         0.2907786139231394       0.07269465348078485      0.9630219573333347       1
293.15                   6                        135                      25.55429613886639        4.1569393769250675       0.305516678600863        0.07637916965021573      0.9702086240000014       1
293.15                   6                        136                      25.5591186449862         4.158761725478811        0.3206599521611969       0.08016498804029921      0.9773952906666681       1
293.15                   6                        137                      25.563785834892087       4.160581450688787        0.33620760461416227      0.08405190115354053      0.9845819573333348       1
293.15                   6                        138                      25.568315794597083       4.162399316656171        0.3521561485004668       0.08803903712511663      0.9917686240000015       1
293.15                   6                        139                      25.57270299156528        4.164215094024487        0.36850660320998163      0.09212665080249535      0.9989552906666682       1
293.15                   6                        140                      25.576947603953386       4.166028444648639        0.3852597277944982       0.09631493194862448      1.006141957333335        1
293.15                   6                        141                      25.581052623880055       4.16783368942938         0.40242827042181184      0.10060706760545288      1.0133286240000017       1
293.15                   6                        142                      25.58502057579466        4.169634807027807        0.42001047713740997      0.1050026192843524       1.0205152906666684       1
293.15                   6                        143                      25.58885767916621        4.171433174961995        0.438014043594079        0.10950351089851966      1.027701957333335        1